
     Program PWSCF v.7.4 starts on 26Nov2025 at 19: 7: 7 

     This program is part of the open-source Quantum ESPRESSO suite
     for quantum simulation of materials; please cite
         "P. Giannozzi et al., J. Phys.:Condens. Matter 21 395502 (2009);
         "P. Giannozzi et al., J. Phys.:Condens. Matter 29 465901 (2017);
         "P. Giannozzi et al., J. Chem. Phys. 152 154105 (2020);
          URL http://www.quantum-espresso.org", 
     in publications or presentations arising from this work. More details at
     http://www.quantum-espresso.org/quote

     Parallel version (MPI & OpenMP), running on      96 processor cores
     Number of MPI processes:                16
     Threads/MPI process:                     6

     MPI processes distributed on     1 nodes
     30726 MiB available memory on the printing compute node when the environment starts

     Waiting for input...
     Reading input from standard input

     Current dimensions of program PWSCF are:
     Max number of different atomic species (ntypx) = 10
     Max number of k-points (npk) =  40000
     Max angular momentum in pseudopotentials (lmaxx) =  4
     file Fe.upf: wavefunction(s)  3P 3D renormalized

     R & G space division:  proc/nbgrp/npool/nimage =      16
     Subspace diagonalization in iterative solution of the eigenvalue problem:
     a serial algorithm will be used


     Parallelization info
     --------------------
     sticks:   dense  smooth     PW     G-vecs:    dense   smooth      PW
     Min        2429    1389    378               107395    46377    6589
     Max        2431    1391    380               107396    46378    6590
     Sum       38883   22241   6061              1718321   742039  105439

     Using Slab Decomposition



     bravais-lattice index     =            0
     lattice parameter (alat)  =      38.6872  a.u.
     unit-cell volume          =    7679.5612 (a.u.)^3
     number of atoms/cell      =           28
     number of atomic types    =            4
     number of electrons       =       192.00 (up:  96.00, down:  96.00)
     number of Kohn-Sham states=           96
     kinetic-energy cutoff     =      80.0000  Ry
     charge density cutoff     =     560.0000  Ry
     scf convergence threshold =      1.0E-03
     mixing beta               =       0.1000
     number of iterations used =            8  local-TF  mixing
     Exchange-correlation= PBE
                           (   1   4   3   4   0   0   0)

     celldm(1)=  38.687214  celldm(2)=   0.000000  celldm(3)=   0.000000
     celldm(4)=   0.000000  celldm(5)=   0.000000  celldm(6)=   0.000000

     crystal axes: (cart. coord. in units of alat)
               a(1) = (   1.000000   0.000000   0.000000 )  
               a(2) = (   0.000000   0.583298   0.000000 )  
               a(3) = (   0.000000   0.000000   0.227375 )  

     reciprocal axes: (cart. coord. in units 2 pi/alat)
               b(1) = (  1.000000  0.000000  0.000000 )  
               b(2) = (  0.000000  1.714389  0.000000 )  
               b(3) = (  0.000000  0.000000  4.398014 )  


     PseudoPot. # 1 for Li read from file:
     ../../PseudoPotentials/PBE/Li.upf
     MD5 check sum: 0e11565407bfb6e9e22218db3032bef3
     Pseudo is Ultrasoft, Zval =  3.0
     Generated using &quot;atomic&quot; code by A. Dal Corso  v.6.3MaX
     Using radial grid of 1017 points,  4 beta functions with: 
                l(1) =   0
                l(2) =   0
                l(3) =   1
                l(4) =   1
     Q(r) pseudized with 0 coefficients 


     PseudoPot. # 2 for Fe read from file:
     ../../PseudoPotentials/PBE/Fe.upf
     MD5 check sum: fc81f059e5c5069939230b1155715ae8
     Pseudo is Projector augmented-wave + core cor, Zval = 16.0
     Generated using &quot;atomic&quot; code by A. Dal Corso  v.6.3
     Shape of augmentation charge: PSQ
     Using radial grid of 1191 points,  6 beta functions with: 
                l(1) =   0
                l(2) =   0
                l(3) =   1
                l(4) =   1
                l(5) =   2
                l(6) =   2
     Q(r) pseudized with 0 coefficients 


     PseudoPot. # 3 for P  read from file:
     ../../PseudoPotentials/PBE/P.upf
     MD5 check sum: 35a33076390d41bb29f486aa00f972f6
     Pseudo is Ultrasoft + core correction, Zval =  5.0
     Generated using &quot;atomic&quot; code by A. Dal Corso  v.6.3
     Using radial grid of 1147 points,  6 beta functions with: 
                l(1) =   0
                l(2) =   0
                l(3) =   1
                l(4) =   1
                l(5) =   2
                l(6) =   2
     Q(r) pseudized with 0 coefficients 


     PseudoPot. # 4 for O  read from file:
     ../../PseudoPotentials/PBE/O.upf
     MD5 check sum: 91400c9766925bcf19f520983a725ff0
     Pseudo is Ultrasoft + core correction, Zval =  6.0
     Generated using &quot;atomic&quot; code by A. Dal Corso  v.6.3MaX
     Using radial grid of 1095 points,  4 beta functions with: 
                l(1) =   0
                l(2) =   0
                l(3) =   1
                l(4) =   1
     Q(r) pseudized with 0 coefficients 


     atomic species   valence    mass     pseudopotential
     Li                3.00     6.94000     Li( 1.00)
     Fe               16.00    55.84500     Fe( 1.00)
     P                 5.00    30.97400     P ( 1.00)
     O                 6.00    15.99900     O ( 1.00)

     Starting magnetic structure 
     atomic species   magnetization
     Li              0.000
     Fe              0.700
     P               0.000
     O               0.000

     No symmetry found


                                    s                        frac. trans.

      isym =  1     identity                                     

 cryst.   s( 1) = (     1          0          0      )
                  (     0          1          0      )
                  (     0          0          1      )

 cart.    s( 1) = (  1.0000000  0.0000000  0.0000000 )
                  (  0.0000000  1.0000000  0.0000000 )
                  (  0.0000000  0.0000000  1.0000000 )


   Cartesian axes

     site n.     atom                  positions (alat units)
         1        Li     tau(   1) = (   0.0000000   0.0000000   0.0000000  )
         2        Li     tau(   2) = (   0.1136877   0.1458247   0.2500001  )
         3        Li     tau(   3) = (   0.1136877   0.0000000   0.2500001  )
         4        Li     tau(   4) = (   0.0000000   0.1458247   0.0000000  )
         5        Fe     tau(   5) = (   0.1204783   0.0729123   0.3905758  )
         6        Fe     tau(   6) = (   0.0067906   0.2187370   0.3594245  )
         7        Fe     tau(   7) = (   0.2205844   0.0729123   0.1405757  )
         8        Fe     tau(   8) = (   0.1068971   0.2187370   0.1094244  )
         9        P      tau(   9) = (   0.0951843   0.0729123   0.0469330  )
        10        P      tau(  10) = (   0.2088720   0.2187370   0.2030666  )
        11        P      tau(  11) = (   0.0185035   0.0729123   0.2969331  )
        12        P      tau(  12) = (   0.1321907   0.2187370   0.4530667  )
        13        O      tau(  13) = (   0.1693461   0.0729123   0.0471152  )
        14        O      tau(  14) = (   0.1622859   0.1591114   0.4170773  )
        15        O      tau(  15) = (   0.1622859   0.2783622   0.4170773  )
        16        O      tau(  16) = (   0.0580294   0.2187370   0.4528845  )
        17        O      tau(  17) = (   0.1614057   0.2187370   0.0221542  )
        18        O      tau(  18) = (   0.0556584   0.2187370   0.2028844  )
        19        O      tau(  19) = (   0.0650896   0.0132872   0.0829229  )
        20        O      tau(  20) = (   0.0485981   0.1325375   0.3329225  )
        21        O      tau(  21) = (   0.1787773   0.1591114   0.1670772  )
        22        O      tau(  22) = (   0.1787773   0.2783622   0.1670772  )
        23        O      tau(  23) = (   0.0659698   0.0729123   0.4778455  )
        24        O      tau(  24) = (   0.0477179   0.0729123   0.2278459  )
        25        O      tau(  25) = (   0.1796576   0.2187370   0.2721543  )
        26        O      tau(  26) = (   0.1717171   0.0729123   0.2971153  )
        27        O      tau(  27) = (   0.0485981   0.0132872   0.3329225  )
        28        O      tau(  28) = (   0.0650896   0.1325375   0.0829229  )

   Crystallographic axes

     site n.     atom                  positions (cryst. coord.)
         1        Li     tau(   1) = (  0.0000000  0.0000000  0.0000000  )
         2        Li     tau(   2) = (  0.1136877  0.2500002  1.0995040  )
         3        Li     tau(   3) = (  0.1136877  0.0000000  1.0995040  )
         4        Li     tau(   4) = (  0.0000000  0.2500002  0.0000000  )
         5        Fe     tau(   5) = (  0.1204783  0.1250001  1.7177577  )
         6        Fe     tau(   6) = (  0.0067906  0.3750003  1.5807542  )
         7        Fe     tau(   7) = (  0.2205844  0.1250001  0.6182537  )
         8        Fe     tau(   8) = (  0.1068971  0.3750003  0.4812502  )
         9        P      tau(   9) = (  0.0951843  0.1250001  0.2064118  )
        10        P      tau(  10) = (  0.2088720  0.3750003  0.8930900  )
        11        P      tau(  11) = (  0.0185035  0.1250001  1.3059158  )
        12        P      tau(  12) = (  0.1321907  0.3750003  1.9925940  )
        13        O      tau(  13) = (  0.1693461  0.1250001  0.2072131  )
        14        O      tau(  14) = (  0.1622859  0.2727787  1.8343119  )
        15        O      tau(  15) = (  0.1622859  0.4772210  1.8343119  )
        16        O      tau(  16) = (  0.0580294  0.3750003  1.9917927  )
        17        O      tau(  17) = (  0.1614057  0.3750003  0.0974346  )
        18        O      tau(  18) = (  0.0556584  0.3750003  0.8922887  )
        19        O      tau(  19) = (  0.0650896  0.0227794  0.3646961  )
        20        O      tau(  20) = (  0.0485981  0.2272208  1.4641979  )
        21        O      tau(  21) = (  0.1787773  0.2727787  0.7348079  )
        22        O      tau(  22) = (  0.1787773  0.4772210  0.7348079  )
        23        O      tau(  23) = (  0.0659698  0.1250001  2.1015712  )
        24        O      tau(  24) = (  0.0477179  0.1250001  1.0020694  )
        25        O      tau(  25) = (  0.1796576  0.3750003  1.1969386  )
        26        O      tau(  26) = (  0.1717171  0.1250001  1.3067171  )
        27        O      tau(  27) = (  0.0485981  0.0227794  1.4641979  )
        28        O      tau(  28) = (  0.0650896  0.2272208  0.3646961  )

     number of k points=     8
                       cart. coord. in units 2pi/alat
        k(    1) = (   0.0000000   0.0000000   0.0000000), wk =   0.1250000
        k(    2) = (   0.0000000   0.0000000  -2.1990071), wk =   0.1250000
        k(    3) = (   0.0000000  -0.8571944   0.0000000), wk =   0.1250000
        k(    4) = (   0.0000000  -0.8571944  -2.1990071), wk =   0.1250000
        k(    5) = (  -0.5000000   0.0000000   0.0000000), wk =   0.1250000
        k(    6) = (  -0.5000000   0.0000000  -2.1990071), wk =   0.1250000
        k(    7) = (  -0.5000000  -0.8571944   0.0000000), wk =   0.1250000
        k(    8) = (  -0.5000000  -0.8571944  -2.1990071), wk =   0.1250000

                       cryst. coord.
        k(    1) = (   0.0000000   0.0000000   0.0000000), wk =   0.1250000
        k(    2) = (   0.0000000   0.0000000  -0.5000000), wk =   0.1250000
        k(    3) = (   0.0000000  -0.5000000   0.0000000), wk =   0.1250000
        k(    4) = (   0.0000000  -0.5000000  -0.5000000), wk =   0.1250000
        k(    5) = (  -0.5000000   0.0000000   0.0000000), wk =   0.1250000
        k(    6) = (  -0.5000000   0.0000000  -0.5000000), wk =   0.1250000
        k(    7) = (  -0.5000000  -0.5000000   0.0000000), wk =   0.1250000
        k(    8) = (  -0.5000000  -0.5000000  -0.5000000), wk =   0.1250000

     Dense  grid:  1718321 G-vectors     FFT dimensions: ( 300, 180,  72)

     Smooth grid:   742039 G-vectors     FFT dimensions: ( 225, 135,  54)

     Dynamical RAM for                 wfc:       8.49 MB

     Dynamical RAM for     wfc (w. buffer):     144.41 MB

     Dynamical RAM for           str. fact:       6.55 MB

     Dynamical RAM for           local pot:       0.00 MB

     Dynamical RAM for          nlocal pot:      26.90 MB

     Dynamical RAM for                qrad:       7.59 MB

     Dynamical RAM for          rho,v,vnew:      22.19 MB

     Dynamical RAM for               rhoin:       7.40 MB

     Dynamical RAM for            rho*nmix:      52.44 MB

     Dynamical RAM for           G-vectors:       6.50 MB

     Dynamical RAM for          h,s,v(r/c):       1.69 MB

     Dynamical RAM for          <psi|beta>:       0.45 MB

     Dynamical RAM for                 psi:      16.99 MB

     Dynamical RAM for                hpsi:      16.99 MB

     Dynamical RAM for                spsi:      16.99 MB

     Dynamical RAM for      wfcinit/wfcrot:      17.20 MB

     Dynamical RAM for           addusdens:     332.66 MB

     Estimated static dynamical RAM per process >     242.10 MB

     Estimated max dynamical RAM per process >     627.20 MB

     Estimated total dynamical RAM >       9.80 GB
     Generating pointlists ...
     new r_m :   0.0324 (alat units)  1.2540 (a.u.) for type    1
     new r_m :   0.0355 (alat units)  1.3733 (a.u.) for type    2
     new r_m :   0.0156 (alat units)  0.6017 (a.u.) for type    3
     new r_m :   0.0094 (alat units)  0.3630 (a.u.) for type    4

     Initial potential from superposition of free atoms

     starting charge     191.9792, renormalised to     192.0000

     negative rho (up, down):  5.554E-04 2.463E-04
     Starting wfcs are  140 randomized atomic wfcs
     Checking if some PAW data can be deallocated... 
       PAW data deallocated on   14 nodes for type:  2

     total cpu time spent up to now is      518.4 secs

     per-process dynamical memory:   275.6 Mb

     Self-consistent Calculation

     iteration #  1     ecut=    80.00 Ry     beta= 0.10
     Davidson diagonalization with overlap

---- Real-time Memory Report at c_bands before calling an iterative solver
           424 MiB given to the printing process from OS
           269 MiB allocation reported by mallinfo(arena+hblkhd)
         26567 MiB available memory on the node where the printing process lives
------------------
     c_bands:  5 eigenvalues not converged
     c_bands:  3 eigenvalues not converged
     c_bands:  2 eigenvalues not converged
     ethr =  1.00E-02,  avg # of iterations = 12.5

     negative rho (up, down):  1.078E-02 1.062E+00

     total cpu time spent up to now is     2459.4 secs

     total energy              =   -1824.13816229 Ry
     estimated scf accuracy    <     795.15338719 Ry

     total magnetization       =     0.00 Bohr mag/cell
     absolute magnetization    =    56.78 Bohr mag/cell

     iteration #  2     ecut=    80.00 Ry     beta= 0.10
     Davidson diagonalization with overlap

---- Real-time Memory Report at c_bands before calling an iterative solver
           637 MiB given to the printing process from OS
           331 MiB allocation reported by mallinfo(arena+hblkhd)
         25659 MiB available memory on the node where the printing process lives
------------------
     ethr =  1.00E-02,  avg # of iterations =  6.8

     negative rho (up, down):  1.109E-02 1.283E+00

     total cpu time spent up to now is     3504.8 secs

     total energy              =   -1831.49762764 Ry
     estimated scf accuracy    <     277.61294696 Ry

     total magnetization       =    -0.00 Bohr mag/cell
     absolute magnetization    =    41.04 Bohr mag/cell

     iteration #  3     ecut=    80.00 Ry     beta= 0.10
     Davidson diagonalization with overlap

---- Real-time Memory Report at c_bands before calling an iterative solver
           644 MiB given to the printing process from OS
           334 MiB allocation reported by mallinfo(arena+hblkhd)
         25548 MiB available memory on the node where the printing process lives
------------------
     ethr =  1.00E-02,  avg # of iterations =  6.8

     negative rho (up, down):  7.439E-03 1.102E+00

     total cpu time spent up to now is     4459.4 secs

     total energy              =   -1840.47405786 Ry
     estimated scf accuracy    <      32.91811851 Ry

     total magnetization       =     0.00 Bohr mag/cell
     absolute magnetization    =    25.78 Bohr mag/cell

     iteration #  4     ecut=    80.00 Ry     beta= 0.10
     Davidson diagonalization with overlap

---- Real-time Memory Report at c_bands before calling an iterative solver
           647 MiB given to the printing process from OS
           337 MiB allocation reported by mallinfo(arena+hblkhd)
         25503 MiB available memory on the node where the printing process lives
------------------
     ethr =  1.00E-02,  avg # of iterations =  1.1

     negative rho (up, down):  6.284E-03 1.191E-01

     total cpu time spent up to now is     5203.6 secs

     total energy              =   -1835.04804924 Ry
     estimated scf accuracy    <      28.78053031 Ry

     total magnetization       =     0.00 Bohr mag/cell
     absolute magnetization    =    25.60 Bohr mag/cell

     iteration #  5     ecut=    80.00 Ry     beta= 0.10
     Davidson diagonalization with overlap

---- Real-time Memory Report at c_bands before calling an iterative solver
           650 MiB given to the printing process from OS
           340 MiB allocation reported by mallinfo(arena+hblkhd)
         25457 MiB available memory on the node where the printing process lives
------------------
     ethr =  1.00E-02,  avg # of iterations =  5.8

     negative rho (up, down):  5.519E-03 1.620E-01

     total cpu time spent up to now is     6248.2 secs

     total energy              =   -1837.76720116 Ry
     estimated scf accuracy    <       2.84266330 Ry

     total magnetization       =    -0.00 Bohr mag/cell
     absolute magnetization    =    22.22 Bohr mag/cell

     iteration #  6     ecut=    80.00 Ry     beta= 0.10
     Davidson diagonalization with overlap

---- Real-time Memory Report at c_bands before calling an iterative solver
           653 MiB given to the printing process from OS
           343 MiB allocation reported by mallinfo(arena+hblkhd)
         25401 MiB available memory on the node where the printing process lives
------------------
     c_bands:  1 eigenvalues not converged
     c_bands:  2 eigenvalues not converged
     c_bands:  1 eigenvalues not converged
     c_bands:  1 eigenvalues not converged
     c_bands:  2 eigenvalues not converged
     c_bands:  1 eigenvalues not converged
     c_bands:  1 eigenvalues not converged
     c_bands:  2 eigenvalues not converged
     c_bands:  1 eigenvalues not converged
     c_bands:  1 eigenvalues not converged
     ethr =  1.48E-03,  avg # of iterations = 19.6

     negative rho (up, down):  5.811E-03 1.732E-01

     total cpu time spent up to now is     8536.2 secs

     total energy              =   -1841.84461776 Ry
     estimated scf accuracy    <      14.39991895 Ry

     total magnetization       =    -0.00 Bohr mag/cell
     absolute magnetization    =    11.59 Bohr mag/cell

     iteration #  7     ecut=    80.00 Ry     beta= 0.10
     Davidson diagonalization with overlap

---- Real-time Memory Report at c_bands before calling an iterative solver
           656 MiB given to the printing process from OS
           346 MiB allocation reported by mallinfo(arena+hblkhd)
         25367 MiB available memory on the node where the printing process lives
------------------
     ethr =  1.48E-03,  avg # of iterations =  1.8

     negative rho (up, down):  5.338E-03 1.543E-01

     total cpu time spent up to now is     9315.7 secs

     total energy              =   -1841.91091890 Ry
     estimated scf accuracy    <      15.20358235 Ry

     total magnetization       =     0.00 Bohr mag/cell
     absolute magnetization    =    11.42 Bohr mag/cell

     iteration #  8     ecut=    80.00 Ry     beta= 0.10
     Davidson diagonalization with overlap

---- Real-time Memory Report at c_bands before calling an iterative solver
           659 MiB given to the printing process from OS
           349 MiB allocation reported by mallinfo(arena+hblkhd)
         25312 MiB available memory on the node where the printing process lives
------------------
     ethr =  1.48E-03,  avg # of iterations =  1.7

     negative rho (up, down):  7.403E-03 1.061E-01

     total cpu time spent up to now is    10097.5 secs

     total energy              =   -1839.89569098 Ry
     estimated scf accuracy    <      15.90374293 Ry

     total magnetization       =     0.00 Bohr mag/cell
     absolute magnetization    =    11.17 Bohr mag/cell

     iteration #  9     ecut=    80.00 Ry     beta= 0.10
     Davidson diagonalization with overlap

---- Real-time Memory Report at c_bands before calling an iterative solver
           662 MiB given to the printing process from OS
           352 MiB allocation reported by mallinfo(arena+hblkhd)
         25250 MiB available memory on the node where the printing process lives
------------------
     c_bands:  1 eigenvalues not converged
     ethr =  1.48E-03,  avg # of iterations = 10.2

     negative rho (up, down):  8.386E-03 1.007E-01

     total cpu time spent up to now is    11240.6 secs

     total energy              =   -1840.11883021 Ry
     estimated scf accuracy    <       6.81036713 Ry

     total magnetization       =     0.00 Bohr mag/cell
     absolute magnetization    =    11.52 Bohr mag/cell

     iteration # 10     ecut=    80.00 Ry     beta= 0.10
     Davidson diagonalization with overlap

---- Real-time Memory Report at c_bands before calling an iterative solver
           665 MiB given to the printing process from OS
           355 MiB allocation reported by mallinfo(arena+hblkhd)
         25205 MiB available memory on the node where the printing process lives
------------------
     ethr =  1.48E-03,  avg # of iterations =  1.8

     negative rho (up, down):  8.370E-03 9.783E-02

     total cpu time spent up to now is    12041.2 secs

     total energy              =   -1840.13268521 Ry
     estimated scf accuracy    <       5.70638483 Ry

     total magnetization       =     0.00 Bohr mag/cell
     absolute magnetization    =    11.56 Bohr mag/cell

     iteration # 11     ecut=    80.00 Ry     beta= 0.10
     Davidson diagonalization with overlap

---- Real-time Memory Report at c_bands before calling an iterative solver
           667 MiB given to the printing process from OS
           355 MiB allocation reported by mallinfo(arena+hblkhd)
         25122 MiB available memory on the node where the printing process lives
------------------
     ethr =  1.48E-03,  avg # of iterations =  1.9

     negative rho (up, down):  4.359E-03 5.163E-02

     total cpu time spent up to now is    12854.8 secs

     total energy              =   -1839.88088223 Ry
     estimated scf accuracy    <       4.75871763 Ry

     total magnetization       =     0.00 Bohr mag/cell
     absolute magnetization    =    11.45 Bohr mag/cell

     iteration # 12     ecut=    80.00 Ry     beta= 0.10
     Davidson diagonalization with overlap

---- Real-time Memory Report at c_bands before calling an iterative solver
           668 MiB given to the printing process from OS
           355 MiB allocation reported by mallinfo(arena+hblkhd)
         25174 MiB available memory on the node where the printing process lives
------------------
     ethr =  1.48E-03,  avg # of iterations =  3.8

     negative rho (up, down):  3.134E-03 8.696E-03

     total cpu time spent up to now is    13745.1 secs

     total energy              =   -1839.22856558 Ry
     estimated scf accuracy    <       3.05744045 Ry

     total magnetization       =     0.00 Bohr mag/cell
     absolute magnetization    =    11.24 Bohr mag/cell

     iteration # 13     ecut=    80.00 Ry     beta= 0.10
     Davidson diagonalization with overlap

---- Real-time Memory Report at c_bands before calling an iterative solver
           668 MiB given to the printing process from OS
           355 MiB allocation reported by mallinfo(arena+hblkhd)
         25173 MiB available memory on the node where the printing process lives
------------------
     ethr =  1.48E-03,  avg # of iterations = 14.8

     negative rho (up, down):  5.384E-03 1.142E-02

     total cpu time spent up to now is    15520.5 secs

     total energy              =   -1840.96976636 Ry
     estimated scf accuracy    <       9.94475623 Ry

     total magnetization       =     0.00 Bohr mag/cell
     absolute magnetization    =     8.71 Bohr mag/cell

     iteration # 14     ecut=    80.00 Ry     beta= 0.10
     Davidson diagonalization with overlap

---- Real-time Memory Report at c_bands before calling an iterative solver
           668 MiB given to the printing process from OS
           355 MiB allocation reported by mallinfo(arena+hblkhd)
         25167 MiB available memory on the node where the printing process lives
------------------
     ethr =  1.48E-03,  avg # of iterations =  2.0

     negative rho (up, down):  7.932E-03 1.264E-02

     total cpu time spent up to now is    16325.3 secs

     total energy              =   -1841.54500707 Ry
     estimated scf accuracy    <      11.03881832 Ry

     total magnetization       =     0.00 Bohr mag/cell
     absolute magnetization    =     8.67 Bohr mag/cell

     iteration # 15     ecut=    80.00 Ry     beta= 0.10
     Davidson diagonalization with overlap

---- Real-time Memory Report at c_bands before calling an iterative solver
           668 MiB given to the printing process from OS
           355 MiB allocation reported by mallinfo(arena+hblkhd)
         25164 MiB available memory on the node where the printing process lives
------------------
     ethr =  1.48E-03,  avg # of iterations =  5.7

     negative rho (up, down):  9.712E-03 1.429E-02

     total cpu time spent up to now is    17317.8 secs

     total energy              =   -1842.13440786 Ry
     estimated scf accuracy    <      17.80032043 Ry

     total magnetization       =     0.00 Bohr mag/cell
     absolute magnetization    =     6.92 Bohr mag/cell

     iteration # 16     ecut=    80.00 Ry     beta= 0.10
     Davidson diagonalization with overlap

---- Real-time Memory Report at c_bands before calling an iterative solver
           668 MiB given to the printing process from OS
           355 MiB allocation reported by mallinfo(arena+hblkhd)
         25167 MiB available memory on the node where the printing process lives
------------------
     ethr =  1.48E-03,  avg # of iterations =  1.9

     negative rho (up, down):  1.474E-02 1.922E-02

     total cpu time spent up to now is    18116.2 secs

     total energy              =   -1842.59356065 Ry
     estimated scf accuracy    <      19.60062590 Ry

     total magnetization       =     0.00 Bohr mag/cell
     absolute magnetization    =     6.79 Bohr mag/cell

     iteration # 17     ecut=    80.00 Ry     beta= 0.10
     Davidson diagonalization with overlap

---- Real-time Memory Report at c_bands before calling an iterative solver
           668 MiB given to the printing process from OS
           355 MiB allocation reported by mallinfo(arena+hblkhd)
         25165 MiB available memory on the node where the printing process lives
------------------
     c_bands:  4 eigenvalues not converged
     ethr =  1.48E-03,  avg # of iterations = 14.9

     negative rho (up, down):  1.321E-02 2.044E-02

     total cpu time spent up to now is    19597.3 secs

     total energy              =   -1842.69789807 Ry
     estimated scf accuracy    <      45.29697859 Ry

     total magnetization       =     0.00 Bohr mag/cell
     absolute magnetization    =     5.32 Bohr mag/cell

     iteration # 18     ecut=    80.00 Ry     beta= 0.10
     Davidson diagonalization with overlap

---- Real-time Memory Report at c_bands before calling an iterative solver
           668 MiB given to the printing process from OS
           355 MiB allocation reported by mallinfo(arena+hblkhd)
         25171 MiB available memory on the node where the printing process lives
------------------
     ethr =  1.48E-03,  avg # of iterations =  1.9

     negative rho (up, down):  1.209E-02 1.366E-02

     total cpu time spent up to now is    20400.7 secs

     total energy              =   -1842.94735149 Ry
     estimated scf accuracy    <      45.04853078 Ry

     total magnetization       =    -0.00 Bohr mag/cell
     absolute magnetization    =     5.38 Bohr mag/cell

     iteration # 19     ecut=    80.00 Ry     beta= 0.10
     Davidson diagonalization with overlap

---- Real-time Memory Report at c_bands before calling an iterative solver
           668 MiB given to the printing process from OS
           355 MiB allocation reported by mallinfo(arena+hblkhd)
         25191 MiB available memory on the node where the printing process lives
------------------
     ethr =  1.48E-03,  avg # of iterations =  3.2

     negative rho (up, down):  5.739E-03 6.693E-03

     total cpu time spent up to now is    21246.5 secs

     total energy              =   -1841.94539440 Ry
     estimated scf accuracy    <      47.66134319 Ry

     total magnetization       =    -0.00 Bohr mag/cell
     absolute magnetization    =     5.17 Bohr mag/cell

     iteration # 20     ecut=    80.00 Ry     beta= 0.10
     Davidson diagonalization with overlap

---- Real-time Memory Report at c_bands before calling an iterative solver
           668 MiB given to the printing process from OS
           355 MiB allocation reported by mallinfo(arena+hblkhd)
         25179 MiB available memory on the node where the printing process lives
------------------
     ethr =  1.48E-03,  avg # of iterations =  2.0

     negative rho (up, down):  1.103E-03 1.325E-03

     total cpu time spent up to now is    22044.0 secs

     total energy              =   -1839.84151923 Ry
     estimated scf accuracy    <      44.78089082 Ry

     total magnetization       =     0.00 Bohr mag/cell
     absolute magnetization    =     5.13 Bohr mag/cell

     End of self-consistent calculation

     convergence NOT achieved after  20 iterations: stopping

     Writing config to output data dir ./tmp/LiFePO4.save/ :
     XML data file, charge density

     init_run     :    721.22s CPU    505.96s WALL (       1 calls)
     electrons    :  33938.00s CPU  21532.09s WALL (       1 calls)

     Called by init_run:
     wfcinit      :    374.81s CPU    265.96s WALL (       1 calls)
     wfcinit:atom :      0.32s CPU      0.38s WALL (      16 calls)
     wfcinit:wfcr :    370.15s CPU    262.21s WALL (      16 calls)
     potinit      :     31.47s CPU     24.73s WALL (       1 calls)
     hinit0       :     23.64s CPU     17.84s WALL (       1 calls)

     Called by electrons:
     c_bands      :  24465.94s CPU  14696.76s WALL (      20 calls)
     sum_band     :   2485.59s CPU   1883.02s WALL (      20 calls)
     v_of_rho     :     69.82s CPU     60.41s WALL (      21 calls)
     v_h          :      2.59s CPU      2.14s WALL (      21 calls)
     v_xc         :     67.23s CPU     58.27s WALL (      21 calls)
     newd         :   6527.79s CPU   4502.62s WALL (      21 calls)
     PAW_pot      :    172.03s CPU    172.04s WALL (      21 calls)
     mix_rho      :    504.64s CPU    405.54s WALL (      20 calls)

     Called by c_bands:
     init_us_2    :     33.27s CPU     30.07s WALL (     656 calls)
     cegterg      :  24300.47s CPU  14567.44s WALL (     323 calls)

     Called by sum_band:
     sum_band:wei :      0.00s CPU      0.00s WALL (      20 calls)
     sum_band:loo :   2159.74s CPU   1585.99s WALL (      20 calls)
     sum_band:buf :      3.87s CPU      3.35s WALL (     320 calls)
     sum_band:ini :     14.92s CPU     13.49s WALL (     320 calls)
     sum_band:cal :    559.75s CPU    374.22s WALL (     320 calls)
     sum_band:bec :      0.41s CPU      0.30s WALL (     320 calls)
     addusdens    :    208.61s CPU    180.46s WALL (      20 calls)
                                        0.00s GPU  (      20 calls)
     addusd:skk   :      0.85s CPU      1.65s WALL (      80 calls)
                                        0.00s GPU  (      80 calls)

     Called by *egterg:
     cdiaghg      :   6144.42s CPU   1637.14s WALL (    2242 calls)
     cegterg:over :   2768.28s CPU   1860.95s WALL (    1921 calls)
     cegterg:upda :    361.39s CPU    218.08s WALL (    1921 calls)
     cegterg:last :    387.86s CPU    240.84s WALL (     767 calls)
     h_psi        :  12854.61s CPU   9288.03s WALL (    2260 calls)
     s_psi        :    409.26s CPU    274.36s WALL (    2260 calls)
     g_psi        :     59.00s CPU     32.16s WALL (    1921 calls)

     Called by h_psi:
     h_psi:calbec :   3339.23s CPU   2246.73s WALL (    2260 calls)
     vloc_psi     :   9043.62s CPU   6734.10s WALL (    2260 calls)
     add_vuspsi   :    437.25s CPU    283.47s WALL (    2260 calls)

     General routines
     calbec       :   3898.49s CPU   2620.93s WALL (    2580 calls)
     fft          :    194.72s CPU    183.07s WALL (     523 calls)
     ffts         :    143.36s CPU    113.34s WALL (    2542 calls)
     fftw         :   7805.63s CPU   5997.58s WALL (  196974 calls)
     interpolate  :     25.69s CPU     18.50s WALL (      42 calls)
     davcio       :      0.01s CPU      0.25s WALL (      34 calls)

     Parallel routines

     PAW routines
     PAW_pot      :    172.03s CPU    172.04s WALL (      21 calls)

     PWSCF        :      9h37m CPU      6h 7m WALL


   This run was terminated on:   1:15: 7  27Nov2025            

=------------------------------------------------------------------------------=
   JOB DONE.
=------------------------------------------------------------------------------=
