
     Program PWSCF v.7.4 starts on 27Nov2025 at  0:46:19 

     This program is part of the open-source Quantum ESPRESSO suite
     for quantum simulation of materials; please cite
         "P. Giannozzi et al., J. Phys.:Condens. Matter 21 395502 (2009);
         "P. Giannozzi et al., J. Phys.:Condens. Matter 29 465901 (2017);
         "P. Giannozzi et al., J. Chem. Phys. 152 154105 (2020);
          URL http://www.quantum-espresso.org", 
     in publications or presentations arising from this work. More details at
     http://www.quantum-espresso.org/quote

     Parallel version (MPI & OpenMP), running on      96 processor cores
     Number of MPI processes:                16
     Threads/MPI process:                     6

     MPI processes distributed on     1 nodes
     30845 MiB available memory on the printing compute node when the environment starts

     Waiting for input...
     Reading input from standard input

     Current dimensions of program PWSCF are:
     Max number of different atomic species (ntypx) = 10
     Max number of k-points (npk) =  40000
     Max angular momentum in pseudopotentials (lmaxx) =  4
     file Fe.upf: wavefunction(s)  3P 3D renormalized

     R & G space division:  proc/nbgrp/npool/nimage =      16
     Subspace diagonalization in iterative solution of the eigenvalue problem:
     a serial algorithm will be used


     Parallelization info
     --------------------
     sticks:   dense  smooth     PW     G-vecs:    dense   smooth      PW
     Min        2735    1563    424               128162    55363    7812
     Max        2737    1565    426               128163    55364    7813
     Sum       43769   25025   6787              2050603   885813  124993

     Using Slab Decomposition



     bravais-lattice index     =            0
     lattice parameter (alat)  =      38.6872  a.u.
     unit-cell volume          =    7679.5612 (a.u.)^3
     number of atoms/cell      =           28
     number of atomic types    =            4
     number of electrons       =       192.00 (up:  96.00, down:  96.00)
     number of Kohn-Sham states=           96
     kinetic-energy cutoff     =      90.0000  Ry
     charge density cutoff     =     630.0000  Ry
     scf convergence threshold =      1.0E-03
     mixing beta               =       0.1000
     number of iterations used =            8  local-TF  mixing
     Exchange-correlation= PBE
                           (   1   4   3   4   0   0   0)

     celldm(1)=  38.687214  celldm(2)=   0.000000  celldm(3)=   0.000000
     celldm(4)=   0.000000  celldm(5)=   0.000000  celldm(6)=   0.000000

     crystal axes: (cart. coord. in units of alat)
               a(1) = (   1.000000   0.000000   0.000000 )  
               a(2) = (   0.000000   0.583298   0.000000 )  
               a(3) = (   0.000000   0.000000   0.227375 )  

     reciprocal axes: (cart. coord. in units 2 pi/alat)
               b(1) = (  1.000000  0.000000  0.000000 )  
               b(2) = (  0.000000  1.714389  0.000000 )  
               b(3) = (  0.000000  0.000000  4.398014 )  


     PseudoPot. # 1 for Li read from file:
     ../../PseudoPotentials/PBE/Li.upf
     MD5 check sum: 0e11565407bfb6e9e22218db3032bef3
     Pseudo is Ultrasoft, Zval =  3.0
     Generated using &quot;atomic&quot; code by A. Dal Corso  v.6.3MaX
     Using radial grid of 1017 points,  4 beta functions with: 
                l(1) =   0
                l(2) =   0
                l(3) =   1
                l(4) =   1
     Q(r) pseudized with 0 coefficients 


     PseudoPot. # 2 for Fe read from file:
     ../../PseudoPotentials/PBE/Fe.upf
     MD5 check sum: fc81f059e5c5069939230b1155715ae8
     Pseudo is Projector augmented-wave + core cor, Zval = 16.0
     Generated using &quot;atomic&quot; code by A. Dal Corso  v.6.3
     Shape of augmentation charge: PSQ
     Using radial grid of 1191 points,  6 beta functions with: 
                l(1) =   0
                l(2) =   0
                l(3) =   1
                l(4) =   1
                l(5) =   2
                l(6) =   2
     Q(r) pseudized with 0 coefficients 


     PseudoPot. # 3 for P  read from file:
     ../../PseudoPotentials/PBE/P.upf
     MD5 check sum: 35a33076390d41bb29f486aa00f972f6
     Pseudo is Ultrasoft + core correction, Zval =  5.0
     Generated using &quot;atomic&quot; code by A. Dal Corso  v.6.3
     Using radial grid of 1147 points,  6 beta functions with: 
                l(1) =   0
                l(2) =   0
                l(3) =   1
                l(4) =   1
                l(5) =   2
                l(6) =   2
     Q(r) pseudized with 0 coefficients 


     PseudoPot. # 4 for O  read from file:
     ../../PseudoPotentials/PBE/O.upf
     MD5 check sum: 91400c9766925bcf19f520983a725ff0
     Pseudo is Ultrasoft + core correction, Zval =  6.0
     Generated using &quot;atomic&quot; code by A. Dal Corso  v.6.3MaX
     Using radial grid of 1095 points,  4 beta functions with: 
                l(1) =   0
                l(2) =   0
                l(3) =   1
                l(4) =   1
     Q(r) pseudized with 0 coefficients 


     atomic species   valence    mass     pseudopotential
     Li                3.00     6.94000     Li( 1.00)
     Fe               16.00    55.84500     Fe( 1.00)
     P                 5.00    30.97400     P ( 1.00)
     O                 6.00    15.99900     O ( 1.00)

     Starting magnetic structure 
     atomic species   magnetization
     Li              0.000
     Fe              0.700
     P               0.000
     O               0.000

     No symmetry found


                                    s                        frac. trans.

      isym =  1     identity                                     

 cryst.   s( 1) = (     1          0          0      )
                  (     0          1          0      )
                  (     0          0          1      )

 cart.    s( 1) = (  1.0000000  0.0000000  0.0000000 )
                  (  0.0000000  1.0000000  0.0000000 )
                  (  0.0000000  0.0000000  1.0000000 )


   Cartesian axes

     site n.     atom                  positions (alat units)
         1        Li     tau(   1) = (   0.0000000   0.0000000   0.0000000  )
         2        Li     tau(   2) = (   0.1136877   0.1458247   0.2500001  )
         3        Li     tau(   3) = (   0.1136877   0.0000000   0.2500001  )
         4        Li     tau(   4) = (   0.0000000   0.1458247   0.0000000  )
         5        Fe     tau(   5) = (   0.1204783   0.0729123   0.3905758  )
         6        Fe     tau(   6) = (   0.0067906   0.2187370   0.3594245  )
         7        Fe     tau(   7) = (   0.2205844   0.0729123   0.1405757  )
         8        Fe     tau(   8) = (   0.1068971   0.2187370   0.1094244  )
         9        P      tau(   9) = (   0.0951843   0.0729123   0.0469330  )
        10        P      tau(  10) = (   0.2088720   0.2187370   0.2030666  )
        11        P      tau(  11) = (   0.0185035   0.0729123   0.2969331  )
        12        P      tau(  12) = (   0.1321907   0.2187370   0.4530667  )
        13        O      tau(  13) = (   0.1693461   0.0729123   0.0471152  )
        14        O      tau(  14) = (   0.1622859   0.1591114   0.4170773  )
        15        O      tau(  15) = (   0.1622859   0.2783622   0.4170773  )
        16        O      tau(  16) = (   0.0580294   0.2187370   0.4528845  )
        17        O      tau(  17) = (   0.1614057   0.2187370   0.0221542  )
        18        O      tau(  18) = (   0.0556584   0.2187370   0.2028844  )
        19        O      tau(  19) = (   0.0650896   0.0132872   0.0829229  )
        20        O      tau(  20) = (   0.0485981   0.1325375   0.3329225  )
        21        O      tau(  21) = (   0.1787773   0.1591114   0.1670772  )
        22        O      tau(  22) = (   0.1787773   0.2783622   0.1670772  )
        23        O      tau(  23) = (   0.0659698   0.0729123   0.4778455  )
        24        O      tau(  24) = (   0.0477179   0.0729123   0.2278459  )
        25        O      tau(  25) = (   0.1796576   0.2187370   0.2721543  )
        26        O      tau(  26) = (   0.1717171   0.0729123   0.2971153  )
        27        O      tau(  27) = (   0.0485981   0.0132872   0.3329225  )
        28        O      tau(  28) = (   0.0650896   0.1325375   0.0829229  )

   Crystallographic axes

     site n.     atom                  positions (cryst. coord.)
         1        Li     tau(   1) = (  0.0000000  0.0000000  0.0000000  )
         2        Li     tau(   2) = (  0.1136877  0.2500002  1.0995040  )
         3        Li     tau(   3) = (  0.1136877  0.0000000  1.0995040  )
         4        Li     tau(   4) = (  0.0000000  0.2500002  0.0000000  )
         5        Fe     tau(   5) = (  0.1204783  0.1250001  1.7177577  )
         6        Fe     tau(   6) = (  0.0067906  0.3750003  1.5807542  )
         7        Fe     tau(   7) = (  0.2205844  0.1250001  0.6182537  )
         8        Fe     tau(   8) = (  0.1068971  0.3750003  0.4812502  )
         9        P      tau(   9) = (  0.0951843  0.1250001  0.2064118  )
        10        P      tau(  10) = (  0.2088720  0.3750003  0.8930900  )
        11        P      tau(  11) = (  0.0185035  0.1250001  1.3059158  )
        12        P      tau(  12) = (  0.1321907  0.3750003  1.9925940  )
        13        O      tau(  13) = (  0.1693461  0.1250001  0.2072131  )
        14        O      tau(  14) = (  0.1622859  0.2727787  1.8343119  )
        15        O      tau(  15) = (  0.1622859  0.4772210  1.8343119  )
        16        O      tau(  16) = (  0.0580294  0.3750003  1.9917927  )
        17        O      tau(  17) = (  0.1614057  0.3750003  0.0974346  )
        18        O      tau(  18) = (  0.0556584  0.3750003  0.8922887  )
        19        O      tau(  19) = (  0.0650896  0.0227794  0.3646961  )
        20        O      tau(  20) = (  0.0485981  0.2272208  1.4641979  )
        21        O      tau(  21) = (  0.1787773  0.2727787  0.7348079  )
        22        O      tau(  22) = (  0.1787773  0.4772210  0.7348079  )
        23        O      tau(  23) = (  0.0659698  0.1250001  2.1015712  )
        24        O      tau(  24) = (  0.0477179  0.1250001  1.0020694  )
        25        O      tau(  25) = (  0.1796576  0.3750003  1.1969386  )
        26        O      tau(  26) = (  0.1717171  0.1250001  1.3067171  )
        27        O      tau(  27) = (  0.0485981  0.0227794  1.4641979  )
        28        O      tau(  28) = (  0.0650896  0.2272208  0.3646961  )

     number of k points=     8
                       cart. coord. in units 2pi/alat
        k(    1) = (   0.0000000   0.0000000   0.0000000), wk =   0.1250000
        k(    2) = (   0.0000000   0.0000000  -2.1990071), wk =   0.1250000
        k(    3) = (   0.0000000  -0.8571944   0.0000000), wk =   0.1250000
        k(    4) = (   0.0000000  -0.8571944  -2.1990071), wk =   0.1250000
        k(    5) = (  -0.5000000   0.0000000   0.0000000), wk =   0.1250000
        k(    6) = (  -0.5000000   0.0000000  -2.1990071), wk =   0.1250000
        k(    7) = (  -0.5000000  -0.8571944   0.0000000), wk =   0.1250000
        k(    8) = (  -0.5000000  -0.8571944  -2.1990071), wk =   0.1250000

                       cryst. coord.
        k(    1) = (   0.0000000   0.0000000   0.0000000), wk =   0.1250000
        k(    2) = (   0.0000000   0.0000000  -0.5000000), wk =   0.1250000
        k(    3) = (   0.0000000  -0.5000000   0.0000000), wk =   0.1250000
        k(    4) = (   0.0000000  -0.5000000  -0.5000000), wk =   0.1250000
        k(    5) = (  -0.5000000   0.0000000   0.0000000), wk =   0.1250000
        k(    6) = (  -0.5000000   0.0000000  -0.5000000), wk =   0.1250000
        k(    7) = (  -0.5000000  -0.5000000   0.0000000), wk =   0.1250000
        k(    8) = (  -0.5000000  -0.5000000  -0.5000000), wk =   0.1250000

     Dense  grid:  2050603 G-vectors     FFT dimensions: ( 320, 192,  72)

     Smooth grid:   885813 G-vectors     FFT dimensions: ( 240, 144,  54)

     Dynamical RAM for                 wfc:      10.14 MB

     Dynamical RAM for     wfc (w. buffer):     172.32 MB

     Dynamical RAM for           str. fact:       7.82 MB

     Dynamical RAM for           local pot:       0.00 MB

     Dynamical RAM for          nlocal pot:      32.10 MB

     Dynamical RAM for                qrad:       8.05 MB

     Dynamical RAM for          rho,v,vnew:      25.80 MB

     Dynamical RAM for               rhoin:       8.60 MB

     Dynamical RAM for            rho*nmix:      62.58 MB

     Dynamical RAM for           G-vectors:       7.76 MB

     Dynamical RAM for          h,s,v(r/c):       1.69 MB

     Dynamical RAM for          <psi|beta>:       0.45 MB

     Dynamical RAM for                 psi:      20.27 MB

     Dynamical RAM for                hpsi:      20.27 MB

     Dynamical RAM for                spsi:      20.27 MB

     Dynamical RAM for      wfcinit/wfcrot:      20.49 MB

     Dynamical RAM for           addusdens:     396.99 MB

     Estimated static dynamical RAM per process >     286.29 MB

     Estimated max dynamical RAM per process >     745.86 MB

     Estimated total dynamical RAM >      11.65 GB
     Generating pointlists ...
     new r_m :   0.0324 (alat units)  1.2540 (a.u.) for type    1
     new r_m :   0.0355 (alat units)  1.3733 (a.u.) for type    2
     new r_m :   0.0156 (alat units)  0.6017 (a.u.) for type    3
     new r_m :   0.0094 (alat units)  0.3630 (a.u.) for type    4

     Initial potential from superposition of free atoms

     starting charge     191.9792, renormalised to     192.0000

     negative rho (up, down):  7.940E-04 3.360E-04
     Starting wfcs are  140 randomized atomic wfcs
     Checking if some PAW data can be deallocated... 
       PAW data deallocated on   14 nodes for type:  2

     total cpu time spent up to now is      567.2 secs

     per-process dynamical memory:   324.3 Mb

     Self-consistent Calculation

     iteration #  1     ecut=    90.00 Ry     beta= 0.10
     Davidson diagonalization with overlap

---- Real-time Memory Report at c_bands before calling an iterative solver
           492 MiB given to the printing process from OS
           316 MiB allocation reported by mallinfo(arena+hblkhd)
         25897 MiB available memory on the node where the printing process lives
------------------
     c_bands:  2 eigenvalues not converged
     c_bands:  3 eigenvalues not converged
     c_bands:  2 eigenvalues not converged
     c_bands:  3 eigenvalues not converged
     ethr =  1.00E-02,  avg # of iterations = 11.3

     negative rho (up, down):  1.150E-02 9.481E-01

     total cpu time spent up to now is     2592.5 secs

     total energy              =   -1824.77262307 Ry
     estimated scf accuracy    <     681.53818970 Ry

     total magnetization       =    -0.00 Bohr mag/cell
     absolute magnetization    =    53.81 Bohr mag/cell

     iteration #  2     ecut=    90.00 Ry     beta= 0.10
     Davidson diagonalization with overlap

---- Real-time Memory Report at c_bands before calling an iterative solver
           743 MiB given to the printing process from OS
           392 MiB allocation reported by mallinfo(arena+hblkhd)
         24859 MiB available memory on the node where the printing process lives
------------------
     ethr =  1.00E-02,  avg # of iterations =  6.9

     negative rho (up, down):  8.885E-03 9.687E-01

     total cpu time spent up to now is     3695.2 secs

     total energy              =   -1837.34820565 Ry
     estimated scf accuracy    <      67.48101425 Ry

     total magnetization       =     0.00 Bohr mag/cell
     absolute magnetization    =    30.36 Bohr mag/cell

     iteration #  3     ecut=    90.00 Ry     beta= 0.10
     Davidson diagonalization with overlap

---- Real-time Memory Report at c_bands before calling an iterative solver
           756 MiB given to the printing process from OS
           395 MiB allocation reported by mallinfo(arena+hblkhd)
         24806 MiB available memory on the node where the printing process lives
------------------
     ethr =  1.00E-02,  avg # of iterations =  4.4

     negative rho (up, down):  6.541E-03 8.336E-01

     total cpu time spent up to now is     4642.7 secs

     total energy              =   -1840.16103867 Ry
     estimated scf accuracy    <      29.53110328 Ry

     total magnetization       =     0.00 Bohr mag/cell
     absolute magnetization    =    25.15 Bohr mag/cell

     iteration #  4     ecut=    90.00 Ry     beta= 0.10
     Davidson diagonalization with overlap

---- Real-time Memory Report at c_bands before calling an iterative solver
           760 MiB given to the printing process from OS
           399 MiB allocation reported by mallinfo(arena+hblkhd)
         24741 MiB available memory on the node where the printing process lives
------------------
     ethr =  1.00E-02,  avg # of iterations =  1.2

     negative rho (up, down):  3.754E-03 2.925E-02

     total cpu time spent up to now is     5467.4 secs

     total energy              =   -1835.50854014 Ry
     estimated scf accuracy    <      25.77094020 Ry

     total magnetization       =     0.00 Bohr mag/cell
     absolute magnetization    =    24.99 Bohr mag/cell

     iteration #  5     ecut=    90.00 Ry     beta= 0.10
     Davidson diagonalization with overlap

---- Real-time Memory Report at c_bands before calling an iterative solver
           763 MiB given to the printing process from OS
           402 MiB allocation reported by mallinfo(arena+hblkhd)
         24676 MiB available memory on the node where the printing process lives
------------------
     ethr =  1.00E-02,  avg # of iterations =  5.1

     negative rho (up, down):  3.907E-03 7.031E-02

     total cpu time spent up to now is     6577.5 secs

     total energy              =   -1837.68771802 Ry
     estimated scf accuracy    <       2.85603695 Ry

     total magnetization       =     0.00 Bohr mag/cell
     absolute magnetization    =    21.94 Bohr mag/cell

     iteration #  6     ecut=    90.00 Ry     beta= 0.10
     Davidson diagonalization with overlap

---- Real-time Memory Report at c_bands before calling an iterative solver
           767 MiB given to the printing process from OS
           406 MiB allocation reported by mallinfo(arena+hblkhd)
         24528 MiB available memory on the node where the printing process lives
------------------
     c_bands:  1 eigenvalues not converged
     c_bands:  1 eigenvalues not converged
     c_bands:  2 eigenvalues not converged
     c_bands:  1 eigenvalues not converged
     c_bands:  5 eigenvalues not converged
     c_bands:  3 eigenvalues not converged
     c_bands:  4 eigenvalues not converged
     c_bands:  3 eigenvalues not converged
     ethr =  1.49E-03,  avg # of iterations = 19.7

     negative rho (up, down):  3.828E-03 6.642E-02

     total cpu time spent up to now is     9125.4 secs

     total energy              =   -1841.91125236 Ry
     estimated scf accuracy    <      14.97738492 Ry

     total magnetization       =    -0.00 Bohr mag/cell
     absolute magnetization    =    11.34 Bohr mag/cell

     iteration #  7     ecut=    90.00 Ry     beta= 0.10
     Davidson diagonalization with overlap

---- Real-time Memory Report at c_bands before calling an iterative solver
           770 MiB given to the printing process from OS
           409 MiB allocation reported by mallinfo(arena+hblkhd)
         24563 MiB available memory on the node where the printing process lives
------------------
     ethr =  1.49E-03,  avg # of iterations =  1.8

     negative rho (up, down):  3.467E-03 5.008E-02

     total cpu time spent up to now is     9980.4 secs

     total energy              =   -1841.66750989 Ry
     estimated scf accuracy    <      15.21408049 Ry

     total magnetization       =    -0.00 Bohr mag/cell
     absolute magnetization    =    11.19 Bohr mag/cell

     iteration #  8     ecut=    90.00 Ry     beta= 0.10
     Davidson diagonalization with overlap

---- Real-time Memory Report at c_bands before calling an iterative solver
           774 MiB given to the printing process from OS
           413 MiB allocation reported by mallinfo(arena+hblkhd)
         24503 MiB available memory on the node where the printing process lives
------------------
     ethr =  1.49E-03,  avg # of iterations =  1.8

     negative rho (up, down):  8.983E-03 3.818E-02

     total cpu time spent up to now is    10849.9 secs

     total energy              =   -1842.55707994 Ry
     estimated scf accuracy    <      14.95285466 Ry

     total magnetization       =    -0.00 Bohr mag/cell
     absolute magnetization    =    11.05 Bohr mag/cell

     iteration #  9     ecut=    90.00 Ry     beta= 0.10
     Davidson diagonalization with overlap

---- Real-time Memory Report at c_bands before calling an iterative solver
           777 MiB given to the printing process from OS
           416 MiB allocation reported by mallinfo(arena+hblkhd)
         24447 MiB available memory on the node where the printing process lives
------------------
     ethr =  1.49E-03,  avg # of iterations =  2.0

     negative rho (up, down):  6.246E-02 6.778E-02

     total cpu time spent up to now is    11731.4 secs

     total energy              =   -1845.51552328 Ry
     estimated scf accuracy    <      17.42502210 Ry

     total magnetization       =     0.00 Bohr mag/cell
     absolute magnetization    =    10.97 Bohr mag/cell

     iteration # 10     ecut=    90.00 Ry     beta= 0.10
     Davidson diagonalization with overlap

---- Real-time Memory Report at c_bands before calling an iterative solver
           781 MiB given to the printing process from OS
           420 MiB allocation reported by mallinfo(arena+hblkhd)
         24377 MiB available memory on the node where the printing process lives
------------------
     c_bands:  1 eigenvalues not converged
     c_bands:  2 eigenvalues not converged
     c_bands:  1 eigenvalues not converged
     ethr =  1.49E-03,  avg # of iterations = 14.6

     negative rho (up, down):  1.807E-02 3.345E-02

     total cpu time spent up to now is    13553.6 secs

     total energy              =   -1842.88396879 Ry
     estimated scf accuracy    <      44.06327685 Ry

     total magnetization       =    -0.00 Bohr mag/cell
     absolute magnetization    =    10.24 Bohr mag/cell

     iteration # 11     ecut=    90.00 Ry     beta= 0.10
     Davidson diagonalization with overlap

---- Real-time Memory Report at c_bands before calling an iterative solver
           784 MiB given to the printing process from OS
           420 MiB allocation reported by mallinfo(arena+hblkhd)
         23651 MiB available memory on the node where the printing process lives
------------------
     ethr =  1.49E-03,  avg # of iterations =  5.4

     negative rho (up, down):  1.369E-02 2.124E-02

     total cpu time spent up to now is    14625.3 secs

     total energy              =   -1842.99539782 Ry
     estimated scf accuracy    <      36.29671698 Ry

     total magnetization       =     0.00 Bohr mag/cell
     absolute magnetization    =     9.75 Bohr mag/cell

     iteration # 12     ecut=    90.00 Ry     beta= 0.10
     Davidson diagonalization with overlap

---- Real-time Memory Report at c_bands before calling an iterative solver
           784 MiB given to the printing process from OS
           420 MiB allocation reported by mallinfo(arena+hblkhd)
         24212 MiB available memory on the node where the printing process lives
------------------
     ethr =  1.49E-03,  avg # of iterations =  1.6

     negative rho (up, down):  2.955E-03 1.017E-02

     total cpu time spent up to now is    15481.7 secs

     total energy              =   -1841.92207697 Ry
     estimated scf accuracy    <      34.25624546 Ry

     total magnetization       =     0.00 Bohr mag/cell
     absolute magnetization    =     9.66 Bohr mag/cell

     iteration # 13     ecut=    90.00 Ry     beta= 0.10
     Davidson diagonalization with overlap

---- Real-time Memory Report at c_bands before calling an iterative solver
           784 MiB given to the printing process from OS
           420 MiB allocation reported by mallinfo(arena+hblkhd)
         24209 MiB available memory on the node where the printing process lives
------------------
     ethr =  1.49E-03,  avg # of iterations =  2.0

     negative rho (up, down):  3.901E-03 1.411E-02

     total cpu time spent up to now is    16409.8 secs

     total energy              =   -1842.33509540 Ry
     estimated scf accuracy    <      29.23837470 Ry

     total magnetization       =    -0.00 Bohr mag/cell
     absolute magnetization    =     9.54 Bohr mag/cell

     iteration # 14     ecut=    90.00 Ry     beta= 0.10
     Davidson diagonalization with overlap

---- Real-time Memory Report at c_bands before calling an iterative solver
           784 MiB given to the printing process from OS
           420 MiB allocation reported by mallinfo(arena+hblkhd)
         24206 MiB available memory on the node where the printing process lives
------------------
     ethr =  1.49E-03,  avg # of iterations =  1.0

     negative rho (up, down):  4.512E-05 4.465E-03

     total cpu time spent up to now is    17250.5 secs

     total energy              =   -1839.52826015 Ry
     estimated scf accuracy    <      29.35237326 Ry

     total magnetization       =    -0.00 Bohr mag/cell
     absolute magnetization    =     9.47 Bohr mag/cell

     iteration # 15     ecut=    90.00 Ry     beta= 0.10
     Davidson diagonalization with overlap

---- Real-time Memory Report at c_bands before calling an iterative solver
           784 MiB given to the printing process from OS
           420 MiB allocation reported by mallinfo(arena+hblkhd)
         24214 MiB available memory on the node where the printing process lives
------------------
     c_bands:  1 eigenvalues not converged
     c_bands:  1 eigenvalues not converged
     c_bands:  1 eigenvalues not converged
     c_bands:  1 eigenvalues not converged
     c_bands:  1 eigenvalues not converged
     ethr =  1.49E-03,  avg # of iterations = 17.2

     negative rho (up, down):  1.826E-03 8.653E-03

     total cpu time spent up to now is    19126.1 secs

     total energy              =   -1839.95897206 Ry
     estimated scf accuracy    <      18.17037095 Ry

     total magnetization       =     0.00 Bohr mag/cell
     absolute magnetization    =     9.41 Bohr mag/cell

     iteration # 16     ecut=    90.00 Ry     beta= 0.10
     Davidson diagonalization with overlap

---- Real-time Memory Report at c_bands before calling an iterative solver
           784 MiB given to the printing process from OS
           420 MiB allocation reported by mallinfo(arena+hblkhd)
         24205 MiB available memory on the node where the printing process lives
------------------
     c_bands:  1 eigenvalues not converged
     ethr =  1.49E-03,  avg # of iterations =  6.1

     negative rho (up, down):  1.365E-03 3.210E-03

     total cpu time spent up to now is    20199.0 secs

     total energy              =   -1840.38316009 Ry
     estimated scf accuracy    <      15.98178681 Ry

     total magnetization       =     0.00 Bohr mag/cell
     absolute magnetization    =     8.98 Bohr mag/cell

     iteration # 17     ecut=    90.00 Ry     beta= 0.10
     Davidson diagonalization with overlap

---- Real-time Memory Report at c_bands before calling an iterative solver
           784 MiB given to the printing process from OS
           420 MiB allocation reported by mallinfo(arena+hblkhd)
         24203 MiB available memory on the node where the printing process lives
------------------
     ethr =  1.49E-03,  avg # of iterations =  1.9

     negative rho (up, down):  7.824E-04 1.720E-03

     total cpu time spent up to now is    21071.1 secs

     total energy              =   -1840.29480526 Ry
     estimated scf accuracy    <      15.98952710 Ry

     total magnetization       =     0.00 Bohr mag/cell
     absolute magnetization    =     8.86 Bohr mag/cell

     iteration # 18     ecut=    90.00 Ry     beta= 0.10
     Davidson diagonalization with overlap

---- Real-time Memory Report at c_bands before calling an iterative solver
           784 MiB given to the printing process from OS
           420 MiB allocation reported by mallinfo(arena+hblkhd)
         24204 MiB available memory on the node where the printing process lives
------------------
     ethr =  1.49E-03,  avg # of iterations =  1.8

     negative rho (up, down):  1.988E-02 2.097E-02

     total cpu time spent up to now is    21930.8 secs

     total energy              =   -1838.26217402 Ry
     estimated scf accuracy    <      15.33617625 Ry

     total magnetization       =     0.00 Bohr mag/cell
     absolute magnetization    =     8.97 Bohr mag/cell

     iteration # 19     ecut=    90.00 Ry     beta= 0.10
     Davidson diagonalization with overlap

---- Real-time Memory Report at c_bands before calling an iterative solver
           784 MiB given to the printing process from OS
           420 MiB allocation reported by mallinfo(arena+hblkhd)
         24157 MiB available memory on the node where the printing process lives
------------------
     c_bands:  3 eigenvalues not converged
     ethr =  1.49E-03,  avg # of iterations = 15.0

     negative rho (up, down):  1.056E-02 2.491E-02

     total cpu time spent up to now is    24028.9 secs

     total energy              =   -1838.79503803 Ry
     estimated scf accuracy    <      15.91917960 Ry

     total magnetization       =    -0.00 Bohr mag/cell
     absolute magnetization    =     9.37 Bohr mag/cell

     iteration # 20     ecut=    90.00 Ry     beta= 0.10
     Davidson diagonalization with overlap

---- Real-time Memory Report at c_bands before calling an iterative solver
           784 MiB given to the printing process from OS
           420 MiB allocation reported by mallinfo(arena+hblkhd)
         24209 MiB available memory on the node where the printing process lives
------------------
     c_bands:  1 eigenvalues not converged
     c_bands:  2 eigenvalues not converged
     c_bands:  1 eigenvalues not converged
     ethr =  1.49E-03,  avg # of iterations = 17.7

     negative rho (up, down):  1.197E-02 1.399E-02

     total cpu time spent up to now is    26215.5 secs

     total energy              =   -1840.04215988 Ry
     estimated scf accuracy    <      18.12146033 Ry

     total magnetization       =    -0.00 Bohr mag/cell
     absolute magnetization    =     8.47 Bohr mag/cell

     End of self-consistent calculation

     convergence NOT achieved after  20 iterations: stopping

     Writing config to output data dir ./tmp/LiFePO4.save/ :
     XML data file, charge density

     init_run     :    793.01s CPU    554.40s WALL (       1 calls)
     electrons    :  40364.53s CPU  25656.05s WALL (       1 calls)

     Called by init_run:
     wfcinit      :    394.19s CPU    280.54s WALL (       1 calls)
     wfcinit:atom :      0.40s CPU      0.42s WALL (      16 calls)
     wfcinit:wfcr :    389.12s CPU    276.15s WALL (      16 calls)
     potinit      :     27.46s CPU     22.88s WALL (       1 calls)
     hinit0       :     20.27s CPU     14.83s WALL (       1 calls)

     Called by electrons:
     c_bands      :  29511.70s CPU  17785.93s WALL (      20 calls)
     sum_band     :   2656.11s CPU   2030.65s WALL (      20 calls)
     v_of_rho     :     88.41s CPU     77.38s WALL (      21 calls)
     v_h          :      2.82s CPU      2.35s WALL (      21 calls)
     v_xc         :     85.58s CPU     75.03s WALL (      21 calls)
     newd         :   7758.97s CPU   5390.27s WALL (      21 calls)
     PAW_pot      :    171.50s CPU    171.52s WALL (      21 calls)
     mix_rho      :    525.43s CPU    425.71s WALL (      20 calls)

     Called by c_bands:
     init_us_2    :     39.50s CPU     36.53s WALL (     656 calls)
     cegterg      :  29324.96s CPU  17637.57s WALL (     323 calls)

     Called by sum_band:
     sum_band:wei :      0.00s CPU      0.00s WALL (      20 calls)
     sum_band:loo :   2262.93s CPU   1668.20s WALL (      20 calls)
     sum_band:buf :      4.55s CPU      4.40s WALL (     320 calls)
     sum_band:ini :     18.68s CPU     16.55s WALL (     320 calls)
     sum_band:cal :    642.91s CPU    429.87s WALL (     320 calls)
     sum_band:bec :      0.40s CPU      0.32s WALL (     320 calls)
     addusdens    :    243.55s CPU    214.14s WALL (      20 calls)
                                        0.00s GPU  (      20 calls)
     addusd:skk   :      1.04s CPU      1.94s WALL (      80 calls)
                                        0.00s GPU  (      80 calls)

     Called by *egterg:
     cdiaghg      :   7220.42s CPU   1928.25s WALL (    2541 calls)
     cegterg:over :   4003.59s CPU   2706.57s WALL (    2218 calls)
     cegterg:upda :    452.54s CPU    275.04s WALL (    2218 calls)
     cegterg:last :    494.97s CPU    309.14s WALL (     831 calls)
     h_psi        :  14947.14s CPU  10771.01s WALL (    2557 calls)
     s_psi        :    505.28s CPU    338.21s WALL (    2557 calls)
     g_psi        :     71.31s CPU     38.63s WALL (    2218 calls)

     Called by h_psi:
     h_psi:calbec :   4467.98s CPU   2996.29s WALL (    2557 calls)
     vloc_psi     :   9904.05s CPU   7400.20s WALL (    2557 calls)
     add_vuspsi   :    535.62s CPU    347.55s WALL (    2557 calls)

     General routines
     calbec       :   5110.24s CPU   3426.14s WALL (    2877 calls)
     fft          :    239.01s CPU    226.33s WALL (     523 calls)
     ffts         :    152.51s CPU    124.62s WALL (    2542 calls)
     fftw         :   8433.77s CPU   6507.30s WALL (  210792 calls)
     interpolate  :     22.01s CPU     16.93s WALL (      42 calls)
     davcio       :      0.01s CPU      0.28s WALL (      34 calls)

     Parallel routines

     PAW routines
     PAW_pot      :    171.50s CPU    171.52s WALL (      21 calls)

     PWSCF        :     11h26m CPU      7h17m WALL


   This run was terminated on:   8: 3:58  27Nov2025            

=------------------------------------------------------------------------------=
   JOB DONE.
=------------------------------------------------------------------------------=
